% Model:              Untitled.mph
% Version:            COMSOL 5.5.0.292
% Date:               Jun 1 2020, 20:14
% Dimension:          3
% Nodes:              3168
% Expressions:        5
% Description:        von Mises stress, Entity index, X-coordinate, Y-coordinate, Z-coordinate
% Length unit:        m
% X                       Y                        Z                        solid.mises (N/m^2)      dom                      X (m)                    Y (m)                    Z (m)
0                         0.10000000000000002      0                        10.000037725264947       1                        0                        0.10000000000000002      0
0.062053502697436404      0.06472036045735934      0                        10.00007192477891        1                        0.0620535026974364       0.06472036045735932      0
0                         0.06205350269743626      0.06472036045735934      9.99999412422292         1                        0                        0.06205350269743626      0.06472036045735932
0                         0                        0                        9.99998361234071         1                        0                        0                        0
0.04026572082373415       0.045813807137298664     0.10473781540395347      10.000050174986955       1                        0.04026572082373415      0.045813807137298664     0.1047378154039535
0                         0                        0.09999999999999998      10.000024102081492       1                        0                        0                        0.09999999999999998
0                         0.07230687138033452      0.14944266381316454      9.999978836896963        1                        0                        0.07230687138033452      0.14944266381316454
0                         0                        0.19999999999999996      9.999994502215708        1                        0                        0                        0.19999999999999996
0.06472053248057413       0                        0.06206940003054591      10.00008020641425        1                        0.06472053248057416      0                        0.062069400030545924
0.09999999999999998       0                        0                        10.000017956692536       1                        0.09999999999999998      0                        0
0.07641915651390142       0.12053513904388088      0.05473781540395346      9.999949413766938        1                        0.07641915651390142      0.12053513904388086      0.054737815403953484
0.08952358331832677       0                        0.14988327543226468      10.000006381840592       1                        0.08952358331832677      0                        0.14988327543226468
0                         0.1498760451532371       0.08956183566962488      10.00001273689127        1                        0                        0.14987604515323708      0.08956183566962485
0                         0.08313273503022969      0.24810613339018672      9.99997778750938         1                        0                        0.08313273503022968      0.2481061333901868
0.049980619803167106      0.1242864835279042       0.20014528679400706      9.999990162961723        1                        0.049980619803167106     0.12428648352790421      0.2001452867940071
0                         0.1600260383767001       0.2012185861434218       9.999981860808415        1                        0                        0.1600260383767001       0.20121858614342172
0.05969551878260006       0.08429948905692443      0.2683872387357322       9.999975767415647        1                        0.05969551878260006      0.08429948905692443      0.2683872387357322
0                         0                        0.29999999999999993      9.999987562373656        1                        0                        0                        0.2999999999999999
0.08233226909461479       0                        0.25541575158112695      9.999926375168988        1                        0.08233226909461479      0                        0.2554157515811269
0.04506208874511742       0.1938434889973622       0.11552697048860841      9.999993094946023        1                        0.04506208874511742      0.19384348899736226      0.11552697048860842
0                         0.22952061558653702      0.15752829557866713      9.999975196053656        1                        0                        0.22952061558653708      0.15752829557866715
0.060139370006042095      0.1974766826495407       0.05045443216666125      9.9999950100344          1                        0.060139370006042095     0.19747668264954077      0.05045443216666124
0                         0.2                      0                        10.000049729832954       1                        0                        0.19999999999999998      0
0.07230687138033452       0.1494426638131644       0                        9.999995307307973        1                        0.07230687138033452      0.14944266381316446      0
0.08313273503022969       0.24810613339018678      0                        10.000020802113992       1                        0.08313273503022968      0.2481061333901868       0
0.19999999999999996       0                        0                        9.999995555969223        1                        0.19999999999999996      0                        0
0.14987604515323696       0.0895618356696248       0                        9.999990804921945        1                        0.149876045153237        0.08956183566962482      0
0.14944587340002755       0                        0.07231280551895573      9.999959025100669        1                        0.14944587340002752      0                        0.07231280551895572
0.09996123960633421       0.08854692867910825      0.19907198744459237      9.999974243600848        1                        0.09996123960633425      0.08854692867910828      0.19907198744459248
0.08053144164746824       0.09162761427459738      0.10947563080790693      9.999985280553725        1                        0.08053144164746827      0.09162761427459735      0.10947563080790697
0.11520374340035258       0.09059472497211109      0.05473781540395346      10.000018055846908       1                        0.11520374340035258      0.09059472497211109      0.054737815403953484
0.13507739258266052       0.14225760048435312      0.05045443216666125      9.999996003385604        1                        0.13507739258266052      0.14225760048435315      0.05045443216666125
0.08053144164746824       0.1401578793646692       0.155646679737276        9.999966122064576        1                        0.08053144164746825      0.14015787936466922      0.15564667973727606
0.15525437834748204       0.060600862925879254     0.11327185333870518      9.999996200741965        1                        0.15525437834748204      0.06060086292587925      0.11327185333870517
0.16270699508107891       0.08525717618794616      0.1872487044764465       10.000014482627392       1                        0.16270699508107891      0.08525717618794616      0.18724870447644648
0.25464259645355536       0.08164883420349867      0                        9.999996504008921        1                        0.2546425964535554       0.08164883420349867      0
0.25623213467532563       0.07112484856468894      0.06219368780702918      9.999972843024073        1                        0.2562321346753257       0.07112484856468894      0.062193687807029184
0.29999999999999993       0                        0                        10.000013422419757       1                        0.2999999999999999       0                        0
0.12027874001208419       0.19495336529908142      0.1009088643333225       9.999987430852562        1                        0.12027874001208425      0.19495336529908147      0.10090886433332254
0.3518792789615612        0.08269845007788412      0                        9.999963599949748        1                        0.35187927896156107      0.0826984500778841       0
0.24886672693028916       0                        0.08451616050430814      9.99999305789546         1                        0.2488667269302892       0                        0.08451616050430812
0.35000000000000003       0                        0.08660254037844396      10.00000638630895        1                        0.35                     0                        0.08660254037844398
0.20139268408351502       0                        0.16015044942468015      10.000025408145806       1                        0.201392684083515        0                        0.1601504494246802
0.15756923147791577       0                        0.2297165444172941       10.000043580675744       1                        0.15756923147791577      0                        0.22971654441729414
0                         0.30000000000000004      0                        9.999993056390704        1                        0                        0.30000000000000004      0
0                         0.25464259645355536      0.0816488342034988       9.99997367349087         1                        0                        0.2546425964535554       0.08164883420349882
0.07237654309816523       0.3444101470069603       0.06125785349374048      9.999994963751963        1                        0.07237654309816526      0.3444101470069603       0.06125785349374048
0.08660254037844389       0.35000000000000003      0                        10.000018624052188       1                        0.08660254037844389      0.35000000000000003      0
0.1667337249029611        0.3004827126867326       0                        9.999994991472489        1                        0.16673372490296104      0.30048271268673254      0
0                         0.4                      0                        10.00001115353992        1                        0                        0.39999999999999997      0
0.17669713810146312       0.051666992233844425     0.2682457311182141       9.999988504475501        1                        0.17669713810146306      0.05166699223384442      0.2682457311182142
0.11939103756520017       0.08546624308361912      0.28866834408127773      10.000006032425386       1                        0.11939103756520011      0.08546624308361912      0.2886683440812777
0.05969551878260006       0.08603439173103157      0.31933417204063885      9.999986497386292        1                        0.05969551878260006      0.08603439173103157      0.31933417204063896
0                         0.08660254037844396      0.35000000000000003      10.000004749329795       1                        0                        0.08660254037844396      0.35000000000000003
0                         0                        0.39999999999999997      10.000014492440565       1                        0                        0                        0.39999999999999997
0.08491560976396272       0                        0.35133581065410546      10.000013730118997       1                        0.08491560976396272      0                        0.3513358106541054
0.16031044798837485       0                        0.3100279948338851       10.000012792553346       1                        0.16031044798837482      0                        0.3100279948338852
0.07368281349100066       0.06264847627088029      0.4215330136563192       9.999990877012548        1                        0.07368281349100064      0.06264847627088031      0.42153301365631907
0                         0.08660254037844396      0.45                     10.000001109348355       1                        0                        0.08660254037844398      0.4500000000000001
0                         0                        0.49999999999999994      9.99998729931345         1                        0                        0                        0.49999999999999994
0                         0.35187927896156124      0.08269845007788412      9.99999016471622         1                        0                        0.35187927896156124      0.08269845007788412
0.0997169133330014        0.28693372122823346      0.08116648194853883      10.00000729232914        1                        0.09971691333300142      0.28693372122823363      0.08116648194853887
0.09012417749023484       0.2378109328414873       0.14149210530759196      10.00000033409452        1                        0.09012417749023484      0.23781093284148727      0.14149210530759196
0.04506208874511742       0.24699274794960546      0.19544833074121376      10.00000412096091        1                        0.04506208874511742      0.24699274794960546      0.1954483307412138
0                         0.2561745630577236       0.24940455617483553      9.999970525089083        1                        0                        0.2561745630577236       0.24940455617483556
0.08053144164746824       0.18868814445474108      0.20181772866664505      9.99997735756424         1                        0.08053144164746823      0.18868814445474116      0.2018177286666451
0.24930319071719964       0                        0.25671638104830036      9.999939576358642        1                        0.24930319071719964      0                        0.25671638104830036
0.07506214016528169       0.15234676034766845      0.27464038548829317      9.999961869340023        1                        0.07506214016528173      0.15234676034766845      0.2746403854882933
0.15012428033056338       0.1379597957923758       0.24879805828985374      9.99999893316374         1                        0.15012428033056346      0.13795979579237583      0.2487980582898537
0                         0.1667337249029611       0.3004827126867326       10.000016756465557       1                        0                        0.16673372490296104      0.30048271268673254
0.1080726624091928        0.12848343894913491      0.3206275543110337       9.999972704536095        1                        0.10807266240919279      0.12848343894913491      0.32062755431103357
0.08660254037844396       0.45                     0                        9.99999754505142         1                        0.08660254037844399      0.4500000000000001       0
0.11927396726522302       0.3976720357075134       0.0469681959778986       10.000012851478532       1                        0.11927396726522306      0.3976720357075134       0.04696819597789861
0                         0.30734990881644575      0.16045425872690763      9.999962932244511        1                        0                        0.30734990881644564      0.1604542587269076
0.1651276619999019        0.4001715863345625       0                        9.999955796131259        1                        0.16512766199990186      0.4001715863345625       0
0.08660254037844396       0                        0.45                     10.00000486646709        1                        0.08660254037844396      0                        0.45000000000000007
0.23520048850252356       0.048365287716412644     0.3182229494350584       9.999981944407894        1                        0.2352004885025236       0.04836528771641265      0.3182229494350584
0.35213206386534873       0.06421112562567312      0.06630286689255378      10.000058438654168       1                        0.35213206386534873      0.06421112562567313      0.0663028668925538
0.39999999999999997       0                        0                        9.999970695850767        1                        0.39999999999999997      0                        0
0.30994294697061836       0.10272364487392457      0.08536298645600045      10.00002133886548        1                        0.30994294697061847      0.10272364487392459      0.08536298645600043
0.20785273987424596       0.1014252800276286       0.07711545057922727      10.000021696641346       1                        0.207852739874246        0.10142528002762854      0.0771154505792273
0.1600260383767001        0.20121858614342178      0                        9.999970416903153        1                        0.16002603837670012      0.20121858614342172      0
0.2694242822496345        0.12973919177174423      0.04106464768095209      10.000019281799489       1                        0.2694242822496345       0.12973919177174423      0.04106464768095209
0.229520615586537         0.15752829557866713      0                        9.99996548152295         1                        0.22952061558653694      0.15752829557866715      0
0.17051842692257227       0.1687336057777327       0.09728147506851861      9.999994574554574        1                        0.17051842692257232      0.16873360577773278      0.09728147506851864
0.15056813155400536       0.19270335690010693      0.15491831841587608      10.00000172211522        1                        0.15056813155400534      0.19270335690010695      0.15491831841587608
0.2644722080706813        0.062444024629975683     0.12250450091661072      10.000022190905664       1                        0.2644722080706812       0.06244402462997571      0.12250450091661068
0.24392661918504543       0.12670978423161236      0.10981022191505543      10.000053742580342       1                        0.24392661918504552      0.1267097842316124       0.10981022191505545
0.16106288329493648       0.12120172585175851      0.15423090115845453      9.999978567986695        1                        0.1610628832949364       0.12120172585175844      0.1542309011584546
0.2254527505558237        0.08196742369678402      0.17542542150830068      10.000045302382917       1                        0.22545275055582356      0.08196742369678402      0.17542542150830076
0.19308382821455145       0.10333398446768885      0.22646346740254308      10.000033905963837       1                        0.1930838282145514       0.10333398446768884      0.22646346740254314
0.3542641277306975        0.12842225125134618      0.046003193406663596     10.000023185269221       1                        0.35426412773069765      0.12842225125134613      0.046003193406663596
0.40911916642904317       0.16608740090951102      0                        10.000008891991154       1                        0.4091191664290431       0.16608740090951102      0
0.45                      0.08660254037844396      0                        9.999995024248044        1                        0.4500000000000001       0.08660254037844399      0
0.30734990881644575       0.16045425872690777      0                        10.000008521200883       1                        0.30734990881644564      0.16045425872690783      0
0.16615954830227378       0.26466858646587527      0.11987250441659161      10.000007055497841       1                        0.1661595483022738       0.26466858646587527      0.1198725044165916
0.24796164290510997       0.3504159778939448       0                        9.999969172578282        1                        0.24796164290511         0.3504159778939448       0
0.18213136727044152       0.33808864348011247      0.08116648194853883      10.000043210749235       1                        0.18213136727044157      0.33808864348011264      0.08116648194853887
0.21116705567999872       0.2570365713203554       0.05993625220829581      10.000046319075876       1                        0.21116705567999883      0.25703657132035546      0.0599362522082958
0.2561745630577236        0.24940455617483562      0                        10.000027700158087       1                        0.2561745630577236       0.24940455617483567      0
0.24972999902251308       0.3167500505652498       0.061477898017412616     10.000021775315236       1                        0.24972999902251308      0.31675005056524974      0.06147789801741264
0.31978116332594825       0.32272544462431724      0                        9.999988932792554        1                        0.31978116332594825      0.3227254446243172       0
0.49999999999999994       0                        0                        9.999984339135446        1                        0.4999999999999999       0                        0
0.4166854834445255        0.06358983471930292      0.07224302281431579      10.000012143825197       1                        0.41668548344452544      0.06358983471930292      0.07224302281431581
0.45                      0                        0.08660254037844396      9.99994846469029         1                        0.45000000000000007      0                        0.08660254037844396
0.2861966876874588        0.058563398793710544     0.1787345381612703       10.000019914259717       1                        0.2861966876874587       0.05856339879371055      0.17873453816127027
0.30095105445625925       0                        0.16993865456297244      10.000029956096807       1                        0.30095105445625936      0                        0.16993865456297244
0.40153596763193944       0                        0.17043786157584323      10.000002061464128       1                        0.40153596763193944      0                        0.17043786157584326
0.35704171404205665       0.05569811318265712      0.13868363414020904      9.999991632617258        1                        0.3570417140420565       0.055698113182657105     0.1386836341402091
0.4149201071192219        0.09982720485076388      0.10472351018433221      9.99993200947417         1                        0.4149201071192221       0.09982720485076385      0.1047235101843322
0.4812389030237022        0.06296854381293272      0.07818317873607779      9.999959532236394        1                        0.4812389030237021       0.06296854381293275      0.07818317873607782
0.5499999999999998        0.08660254037844389      0                        9.999960205388547        1                        0.5499999999999998       0.08660254037844387      0
0.25382776534618656       0.07992995956461536      0.22977258405551276      9.999979899581513        1                        0.2538277653461866       0.0799299595646154       0.22977258405551285
0.2269689487716296        0.09673057543282529      0.27759122426350435      10.000000714872433       1                        0.22696894877162957      0.09673057543282532      0.27759122426350447
0.3145717024778217        0.05652593466154189      0.2330817007084824       10.00001687463479        1                        0.3145717024778217       0.056525934661541884     0.23308170070848233
0.7477297658292923        0.08321528847316188      0                        9.999921434142587        1                        0.7477297658292924       0.08321528847316187      0
0.7                       0                        0                        9.999906650818724        1                        0.7000000000000001       0                        0
0.7999999999999999        0                        0                        9.999910870745635        1                        0.7999999999999999       0                        0
0.7158371667338798        0.05614314261059318      0.07347627404050917      9.999898343537925        1                        0.71583716673388         0.05614314261059317      0.07347627404050919
0.3576071986115353        0                        0.2603155138526844       10.000070307583966       1                        0.3576071986115353       0                        0.26031551385268437
0.24343202823341745       0                        0.3588546746066125       9.999998028854703        1                        0.24343202823341742      0                        0.35885467460661247
0.3165397645799973        0                        0.32913589699030327      9.999965459441391        1                        0.3165397645799973       0                        0.32913589699030327
0.2014300277214593        0.410329986398709        0.05780335537169225      9.999979956806444        1                        0.2014300277214592       0.41032998639870916      0.05780335537169227
0.12014095654416404       0.33845446874701657      0.1018410944680099       9.999979121786772        1                        0.12014095654416404      0.3384544687470167       0.1018410944680099
0.05815054581788655       0.33882029401392066      0.12251570698748096      10.000041960935647       1                        0.05815054581788657      0.33882029401392083      0.12251570698748095
0                         0.5                      0                        10.000063845651445       1                        0                        0.5                      0
0                         0.45                     0.08660254037844396      10.00001304387983        1                        0                        0.4500000000000001       0.08660254037844396
0.16002281290898804       0.46923284559968365      0.05258716691685507      9.999978569108901        1                        0.1600228129089881       0.4692328455996836       0.05258716691685506
0.07342027253054413       0.3951724850804643       0.0939363919557972       9.99997793637107         1                        0.07342027253054416      0.39517248508046454      0.09393639195579723
0.07342027253054413       0.4942328455996836       0.09588843710607711      10.00000674601691        1                        0.07342027253054415      0.49423284559968345      0.0958884371060771
0                         0.5499999999999999       0.08660254037844396      10.000017375144068       1                        0                        0.5499999999999999       0.08660254037844396
0.08660254037844396       0.5499999999999999       0                        10.000021599192142       1                        0.08660254037844398      0.5499999999999999       0
0                         0.6                      0                        9.999990534460554        1                        0                        0.6                      0
0.17320508075688787       0.49999999999999994      0                        10.000040643312852       1                        0.17320508075688787      0.49999999999999994      0
0.19994091713460155       0.08546624308361912      0.3403878055940205       10.00000646769585        1                        0.19994091713460158      0.08546624308361914      0.3403878055940204
0.06076308660355735       0.12529695254176057      0.39306602731263834      10.00002462969199        1                        0.060763086603557344     0.12529695254176063      0.39306602731263846
0                         0.16512766199990198      0.4001715863345624       9.99995252002326         1                        0                        0.165127661999902        0.4001715863345624
0.12152617320711476       0.08546624308361912      0.3859604682907143       9.99999254260245         1                        0.1215261732071147       0.08546624308361914      0.3859604682907142
0.09448251886225503       0.12221929957075936      0.4681870484131688       9.999973639900126        1                        0.09448251886225505      0.12221929957075937      0.4681870484131689
0.056339046231041426      0.1732846736988604       0.47020013468758437      10.000015703325003       1                        0.056339046231041426     0.17328467369886044      0.4702001346875841
0                         0.1732050807568877       0.5                      10.000003005202785       1                        0                        0.1732050807568877       0.5
0.1643342446622397        0                        0.4060982878089835       9.999973022171282        1                        0.16433424466223967      0                        0.4060982878089836
0.06631299574673429       0.07887823291055109      0.5080869810693766       9.999992673124856        1                        0.06631299574673431      0.07887823291055109      0.5080869810693768
0                         0.08660254037844389      0.5499999999999998       9.99997659455005         1                        0                        0.08660254037844387      0.5499999999999998
0.13262599149346857       0.07115392544265832      0.46617396213875334      10.000013373825261       1                        0.13262599149346863      0.07115392544265832      0.4661739621387534
0                         0                        0.5999999999999998       10.000028978117456       1                        0                        0                        0.5999999999999998
0.08660254037844389       0                        0.5499999999999998       10.000023573152856       1                        0.08660254037844387      0                        0.5499999999999998
0                         0.40911916642904333      0.16608740090951102      9.999987454785353        1                        0                        0.4091191664290434       0.16608740090951102
0.05016304072422918       0.3110466377967304       0.25552047415040413      10.00004238122872        1                        0.050163040724229196     0.3110466377967303       0.2555204741504041
0                         0.3641535084893458       0.2545263482941881       9.999965684881838        1                        0                        0.36415350848934575      0.254526348294188
0                         0.3197811633259483       0.32272544462431724      10.000005374691243       1                        0                        0.31978116332594825      0.3227254446243172
0.06419397187106098       0.26024685116645224      0.2958444656940454       9.999995366307822        1                        0.06419397187106098      0.2602468511664523       0.2958444656940455
0                         0.24796164290510989      0.3504159778939448       10.000057330123301       1                        0                        0.24796164290510983      0.35041597789394474
0.1163010916357731        0.32576130906628015      0.16233296389707771      10.0000457013039         1                        0.11630109163577315      0.32576130906628015      0.16233296389707774